 DBCSR| Multiplication driver                                                SMM
 DBCSR| Multrec recursion limit                                              512
 DBCSR| Multiplication stack size                                           1000
 DBCSR| Multiplication size stacks                                             3
 DBCSR| Use subcommunicators                                                   T
 DBCSR| Use MPI combined types                                                 F
 DBCSR| Use MPI memory allocation                                              T
 DBCSR| Use Communication thread                                               T
 DBCSR| Communication thread load                                             87


  **** **** ******  **  PROGRAM STARTED AT               2018-03-22 17:06:03.441
 ***** ** ***  *** **   PROGRAM STARTED ON                               pod23a3
 **    ****   ******    PROGRAM STARTED BY                                      
 ***** **    ** ** **   PROGRAM PROCESS ID                                  8208
  **** **  *******  **  PROGRAM STARTED IN /global/home/garytom/EECE_proj/CP2K/P
                                           TCDA

 CP2K| version string:                                        CP2K version 2.5.1
 CP2K| source code revision number:                                    svn:13632
 CP2K| is freely available from                             http://www.cp2k.org/
 CP2K| Program compiled at                          Thu Nov  6 18:08:22 PST 2014
 CP2K| Program compiled on                                                elder2
 CP2K| Program compiled for                                    Orcinus-intel-v14
 CP2K| Input file name                               coarse_MT_PTCDA_PBE_GPW.inp
 
 GLOBAL| Force Environment number                                              1
 GLOBAL| Basis set file name                                   ./../BASIS_MOLOPT
 GLOBAL| Geminal file name                                         BASIS_GEMINAL
 GLOBAL| Potential file name                                 ./../GTH_POTENTIALS
 GLOBAL| MM Potential file name                                     MM_POTENTIAL
 GLOBAL| Coordinate file name                                        ./PTCDA.xyz
 GLOBAL| Method name                                                        CP2K
 GLOBAL| Project name                                    coarse_MT_PTCDA_PBE_GPW
 GLOBAL| Preferred FFT library                                             FFTW3
 GLOBAL| Preferred diagonalization lib.                                       SL
 GLOBAL| Run type                                                         ENERGY
 GLOBAL| All-to-all communication in single precision                          F
 GLOBAL| FFTs using library dependent lengths                                  F
 GLOBAL| Global print level                                               MEDIUM
 GLOBAL| Total number of message passing processes                            24
 GLOBAL| Number of threads for this process                                    1
 GLOBAL| This output is from process                                           0

 MEMORY| system memory details [Kb]
 MEMORY|                        rank 0           min           max       average
 MEMORY| MemTotal             24592508      24592508      24592508      24592508
 MEMORY| MemFree              16233436        723892      21252376      11774216
 MEMORY| Buffers                255272         92428        286024        234836
 MEMORY| Cached                2500748        708116      14852080       6707442
 MEMORY| Slab                   891320        358276       3195904       1802958
 MEMORY| SReclaimable            64008         41812        267360        124739
 MEMORY| MemLikelyFree        19053464      12913680      22212788      18841235


 *** Fundamental physical constants (SI units) ***

 *** Literature: B. J. Mohr and B. N. Taylor,
 ***             CODATA recommended values of the fundamental physical
 ***             constants: 2006, Web Version 5.1
 ***             http://physics.nist.gov/constants

 Speed of light in vacuum [m/s]                             2.99792458000000E+08
 Magnetic constant or permeability of vacuum [N/A**2]       1.25663706143592E-06
 Electric constant or permittivity of vacuum [F/m]          8.85418781762039E-12
 Planck constant (h) [J*s]                                  6.62606896000000E-34
 Planck constant (h-bar) [J*s]                              1.05457162825177E-34
 Elementary charge [C]                                      1.60217648700000E-19
 Electron mass [kg]                                         9.10938215000000E-31
 Electron g factor [ ]                                     -2.00231930436220E+00
 Proton mass [kg]                                           1.67262163700000E-27
 Fine-structure constant                                    7.29735253760000E-03
 Rydberg constant [1/m]                                     1.09737315685270E+07
 Avogadro constant [1/mol]                                  6.02214179000000E+23
 Boltzmann constant [J/K]                                   1.38065040000000E-23
 Atomic mass unit [kg]                                      1.66053878200000E-27
 Bohr radius [m]                                            5.29177208590000E-11

 *** Conversion factors ***

 [u] -> [a.u.]                                              1.82288848426455E+03
 [Angstrom] -> [Bohr] = [a.u.]                              1.88972613288564E+00
 [a.u.] = [Bohr] -> [Angstrom]                              5.29177208590000E-01
 [a.u.] -> [s]                                              2.41888432650478E-17
 [a.u.] -> [fs]                                             2.41888432650478E-02
 [a.u.] -> [J]                                              4.35974393937059E-18
 [a.u.] -> [N]                                              8.23872205491840E-08
 [a.u.] -> [K]                                              3.15774647902944E+05
 [a.u.] -> [kJ/mol]                                         2.62549961709828E+03
 [a.u.] -> [kcal/mol]                                       6.27509468713739E+02
 [a.u.] -> [Pa]                                             2.94210107994716E+13
 [a.u.] -> [bar]                                            2.94210107994716E+08
 [a.u.] -> [atm]                                            2.90362800883016E+08
 [a.u.] -> [eV]                                             2.72113838565563E+01
 [a.u.] -> [Hz]                                             6.57968392072181E+15
 [a.u.] -> [1/cm] (wave numbers)                            2.19474631370540E+05
 [a.u./Bohr**2] -> [1/cm]                                   5.14048714338585E+03
 

 CELL| Volume [angstrom^3]:                                            27000.000
 CELL| Vector a [angstrom]:      30.000     0.000     0.000    |a| =      30.000
 CELL| Vector b [angstrom]:       0.000    30.000     0.000    |b| =      30.000
 CELL| Vector c [angstrom]:       0.000     0.000    30.000    |c| =      30.000
 CELL| Angle (b,c), alpha [degree]:                                       90.000
 CELL| Angle (a,c), beta  [degree]:                                       90.000
 CELL| Angle (a,b), gamma [degree]:                                       90.000
 CELL| Numerically orthorhombic:                                             YES

 CELL_REF| Volume [angstrom^3]:                                        27000.000
 CELL_REF| Vector a [angstrom    30.000     0.000     0.000    |a| =      30.000
 CELL_REF| Vector b [angstrom     0.000    30.000     0.000    |b| =      30.000
 CELL_REF| Vector c [angstrom     0.000     0.000    30.000    |c| =      30.000
 CELL_REF| Angle (b,c), alpha [degree]:                                   90.000
 CELL_REF| Angle (a,c), beta  [degree]:                                   90.000
 CELL_REF| Angle (a,b), gamma [degree]:                                   90.000
 CELL_REF| Numerically orthorhombic:                                         YES

 CELL_TOP| Volume [angstrom^3]:                                        27000.000
 CELL_TOP| Vector a [angstrom    30.000     0.000     0.000    |a| =      30.000
 CELL_TOP| Vector b [angstrom     0.000    30.000     0.000    |b| =      30.000
 CELL_TOP| Vector c [angstrom     0.000     0.000    30.000    |c| =      30.000
 CELL_TOP| Angle (b,c), alpha [degree]:                                   90.000
 CELL_TOP| Angle (a,c), beta  [degree]:                                   90.000
 CELL_TOP| Angle (a,b), gamma [degree]:                                   90.000
 CELL_TOP| Numerically orthorhombic:                                         YES
 
 GENERATE|  Preliminary Number of Bonds generated:                             0
 GENERATE|  Achieved consistency in connectivity generation.

 *******************************************************************************
 *******************************************************************************
 **                                                                           **
 **     #####                         ##              ##                      **
 **    ##   ##            ##          ##              ##                      **
 **   ##     ##                       ##            ######                    **
 **   ##     ##  ##   ##  ##   #####  ##  ##   ####   ##    #####    #####    **
 **   ##     ##  ##   ##  ##  ##      ## ##   ##      ##   ##   ##  ##   ##   **
 **   ##  ## ##  ##   ##  ##  ##      ####     ###    ##   ######   ######    **
 **    ##  ###   ##   ##  ##  ##      ## ##      ##   ##   ##       ##        **
 **     #######   #####   ##   #####  ##  ##  ####    ##    #####   ##        **
 **           ##                                                    ##        **
 **                                                                           **
 **                                                ... make the atoms dance   **
 **                                                                           **
 **            Copyright (C) by CP2K Developers Group (2000 - 2014)           **
 **                                                                           **
 *******************************************************************************

 DFT| Spin restricted Kohn-Sham (RKS) calculation                            RKS
 DFT| Multiplicity                                                             1
 DFT| Number of spin states                                                    1
 DFT| Charge                                                                   0
 DFT| Self-interaction correction (SIC)                                       NO
 DFT| Cutoffs: density                                              1.000000E-10
 DFT|          gradient                                             1.000000E-10
 DFT|          tau                                                  1.000000E-10
 DFT|          cutoff_smoothing_range                               0.000000E+00
 DFT| XC density smoothing                                                  NONE
 DFT| XC derivatives                                                          PW
 FUNCTIONAL| ROUTINE=NEW
 FUNCTIONAL| PBE:
 FUNCTIONAL| J.P.Perdew, K.Burke, M.Ernzerhof, Phys. Rev. Letter, vol. 77, n 18,
 FUNCTIONAL|  pp. 3865-3868, (1996){spin unpolarized}

 QS| Method:                                                                 GPW
 QS| Density plane wave grid type                        NON-SPHERICAL FULLSPACE
 QS| Number of grid levels:                                                    5
 QS| Density cutoff [a.u.]:                                                140.0
 QS| Multi grid cutoff [a.u.]: 1) grid level                               140.0
 QS|                           2) grid level                                46.7
 QS|                           3) grid level                                15.6
 QS|                           4) grid level                                 5.2
 QS|                           5) grid level                                 1.7
 QS| Grid level progression factor:                                          3.0
 QS| Relative density cutoff [a.u.]:                                        20.0
 QS| Consistent realspace mapping and integration 
 QS| Interaction thresholds: eps_pgf_orb:                                1.0E-05
 QS|                         eps_filter_matrix:                          0.0E+00
 QS|                         eps_core_charge:                            1.0E-12
 QS|                         eps_rho_gspace:                             1.0E-10
 QS|                         eps_rho_rspace:                             1.0E-10
 QS|                         eps_gvg_rspace:                             1.0E-05
 QS|                         eps_ppl:                                    1.0E-02
 QS|                         eps_ppnl:                                   1.0E-07


 ATOMIC KIND INFORMATION

  1. Atomic kind: C                                     Number of atoms:      24

     Orbital Basis Set                                        DZVP-MOLOPT-SR-GTH

       Number of orbital shell sets:                                           1
       Number of orbital shells:                                               5
       Number of primitive Cartesian functions:                                5
       Number of Cartesian basis functions:                                   14
       Number of spherical basis functions:                                   13
       Norm type:                                                              2

       Normalised Cartesian orbitals:

                        Set   Shell   Orbital            Exponent    Coefficient

                          1       1    2s                5.605331       0.322515
                                                         2.113016       0.213043
                                                         0.769911      -0.209686
                                                         0.348157      -0.219794
                                                         0.128212      -0.022789

                          1       2    3s                5.605331       0.552234
                                                         2.113016       0.082072
                                                         0.769911       0.007843
                                                         0.348157       0.136893
                                                         0.128212       0.074283

                          1       3    3px               5.605331      -0.703879
                                                         2.113016      -0.642521
                                                         0.769911      -0.374851
                                                         0.348157      -0.139743
                                                         0.128212      -0.027849
                          1       3    3py               5.605331      -0.703879
                                                         2.113016      -0.642521
                                                         0.769911      -0.374851
                                                         0.348157      -0.139743
                                                         0.128212      -0.027849
                          1       3    3pz               5.605331      -0.703879
                                                         2.113016      -0.642521
                                                         0.769911      -0.374851
                                                         0.348157      -0.139743
                                                         0.128212      -0.027849

                          1       4    4px               5.605331      -0.480376
                                                         2.113016      -0.552894
                                                         0.769911      -0.316145
                                                         0.348157       0.210505
                                                         0.128212       0.076095
                          1       4    4py               5.605331      -0.480376
                                                         2.113016      -0.552894
                                                         0.769911      -0.316145
                                                         0.348157       0.210505
                                                         0.128212       0.076095
                          1       4    4pz               5.605331      -0.480376
                                                         2.113016      -0.552894
                                                         0.769911      -0.316145
                                                         0.348157       0.210505
                                                         0.128212       0.076095

                          1       5    4dx2              5.605331       0.640026
                                                         2.113016       0.274300
                                                         0.769911       0.446711
                                                         0.348157       0.028674
                                                         0.128212       0.029790
                          1       5    4dxy              5.605331       1.108557
                                                         2.113016       0.475102
                                                         0.769911       0.773726
                                                         0.348157       0.049666
                                                         0.128212       0.051599
                          1       5    4dxz              5.605331       1.108557
                                                         2.113016       0.475102
                                                         0.769911       0.773726
                                                         0.348157       0.049666
                                                         0.128212       0.051599
                          1       5    4dy2              5.605331       0.640026
                                                         2.113016       0.274300
                                                         0.769911       0.446711
                                                         0.348157       0.028674
                                                         0.128212       0.029790
                          1       5    4dyz              5.605331       1.108557
                                                         2.113016       0.475102
                                                         0.769911       0.773726
                                                         0.348157       0.049666
                                                         0.128212       0.051599
                          1       5    4dz2              5.605331       0.640026
                                                         2.113016       0.274300
                                                         0.769911       0.446711
                                                         0.348157       0.028674
                                                         0.128212       0.029790

     Potential information for                                        GTH-PBE-q4

       Description:                       Goedecker-Teter-Hutter pseudopotential
                                           Goedecker et al., PRB 54, 1703 (1996)
                                          Hartwigsen et al., PRB 58, 3641 (1998)
                                                      Krack, TCA 114, 145 (2005)

       Gaussian exponent of the core charge distribution:               4.364419
       Electronic configuration (s p d ...):                               2   2

       Parameters of the local part of the GTH pseudopotential:

                          rloc        C1          C2          C3          C4
                        0.338471   -8.803674    1.339211

       Parameters of the non-local part of the GTH pseudopotential:

                   l      r(l)      h(i,j,l)

                   0    0.302576    9.622487
                   1    0.291507

  2. Atomic kind: O                                     Number of atoms:       6

     Orbital Basis Set                                        DZVP-MOLOPT-SR-GTH

       Number of orbital shell sets:                                           1
       Number of orbital shells:                                               5
       Number of primitive Cartesian functions:                                5
       Number of Cartesian basis functions:                                   14
       Number of spherical basis functions:                                   13
       Norm type:                                                              2

       Normalised Cartesian orbitals:

                        Set   Shell   Orbital            Exponent    Coefficient

                          1       1    2s               10.389228       0.396646
                                                         3.849621       0.208811
                                                         1.388401      -0.301641
                                                         0.496955      -0.274061
                                                         0.162492      -0.033677

                          1       2    3s               10.389228       0.303673
                                                         3.849621       0.240943
                                                         1.388401      -0.313066
                                                         0.496955      -0.043055
                                                         0.162492       0.213991

                          1       3    3px              10.389228      -1.530415
                                                         3.849621      -1.371928
                                                         1.388401      -0.761951
                                                         0.496955      -0.253695
                                                         0.162492      -0.035541
                          1       3    3py              10.389228      -1.530415
                                                         3.849621      -1.371928
                                                         1.388401      -0.761951
                                                         0.496955      -0.253695
                                                         0.162492      -0.035541
                          1       3    3pz              10.389228      -1.530415
                                                         3.849621      -1.371928
                                                         1.388401      -0.761951
                                                         0.496955      -0.253695
                                                         0.162492      -0.035541

                          1       4    4px              10.389228      -0.565392
                                                         3.849621      -0.038231
                                                         1.388401      -0.382373
                                                         0.496955       0.179070
                                                         0.162492       0.122714
                          1       4    4py              10.389228      -0.565392
                                                         3.849621      -0.038231
                                                         1.388401      -0.382373
                                                         0.496955       0.179070
                                                         0.162492       0.122714
                          1       4    4pz              10.389228      -0.565392
                                                         3.849621      -0.038231
                                                         1.388401      -0.382373
                                                         0.496955       0.179070
                                                         0.162492       0.122714

                          1       5    4dx2             10.389228       1.867377
                                                         3.849621       0.670994
                                                         1.388401       1.353441
                                                         0.496955       0.273538
                                                         0.162492       0.006620
                          1       5    4dxy             10.389228       3.234392
                                                         3.849621       1.162195
                                                         1.388401       2.344229
                                                         0.496955       0.473781
                                                         0.162492       0.011466
                          1       5    4dxz             10.389228       3.234392
                                                         3.849621       1.162195
                                                         1.388401       2.344229
                                                         0.496955       0.473781
                                                         0.162492       0.011466
                          1       5    4dy2             10.389228       1.867377
                                                         3.849621       0.670994
                                                         1.388401       1.353441
                                                         0.496955       0.273538
                                                         0.162492       0.006620
                          1       5    4dyz             10.389228       3.234392
                                                         3.849621       1.162195
                                                         1.388401       2.344229
                                                         0.496955       0.473781
                                                         0.162492       0.011466
                          1       5    4dz2             10.389228       1.867377
                                                         3.849621       0.670994
                                                         1.388401       1.353441
                                                         0.496955       0.273538
                                                         0.162492       0.006620

     Potential information for                                        GTH-PBE-q6

       Description:                       Goedecker-Teter-Hutter pseudopotential
                                           Goedecker et al., PRB 54, 1703 (1996)
                                          Hartwigsen et al., PRB 58, 3641 (1998)
                                                      Krack, TCA 114, 145 (2005)

       Gaussian exponent of the core charge distribution:               8.360253
       Electronic configuration (s p d ...):                               2   4

       Parameters of the local part of the GTH pseudopotential:

                          rloc        C1          C2          C3          C4
                        0.244554  -16.667215    2.487311

       Parameters of the non-local part of the GTH pseudopotential:

                   l      r(l)      h(i,j,l)

                   0    0.220956   18.337458
                   1    0.211332

  3. Atomic kind: H                                     Number of atoms:       8

     Orbital Basis Set                                        DZVP-MOLOPT-SR-GTH

       Number of orbital shell sets:                                           1
       Number of orbital shells:                                               3
       Number of primitive Cartesian functions:                                5
       Number of Cartesian basis functions:                                    5
       Number of spherical basis functions:                                    5
       Norm type:                                                              2

       Normalised Cartesian orbitals:

                        Set   Shell   Orbital            Exponent    Coefficient

                          1       1    2s               10.068468      -0.133023
                                                         2.680223      -0.177618
                                                         0.791502      -0.258419
                                                         0.239116      -0.107525
                                                         0.082193      -0.014019

                          1       2    3s               10.068468       0.344673
                                                         2.680223       1.819821
                                                         0.791502      -0.999069
                                                         0.239116       0.017430
                                                         0.082193       0.082660

                          1       3    3px              10.068468       0.155326
                                                         2.680223       0.367157
                                                         0.791502       0.311480
                                                         0.239116       0.080105
                                                         0.082193       0.033440
                          1       3    3py              10.068468       0.155326
                                                         2.680223       0.367157
                                                         0.791502       0.311480
                                                         0.239116       0.080105
                                                         0.082193       0.033440
                          1       3    3pz              10.068468       0.155326
                                                         2.680223       0.367157
                                                         0.791502       0.311480
                                                         0.239116       0.080105
                                                         0.082193       0.033440

     Potential information for                                        GTH-PBE-q1

       Description:                       Goedecker-Teter-Hutter pseudopotential
                                           Goedecker et al., PRB 54, 1703 (1996)
                                          Hartwigsen et al., PRB 58, 3641 (1998)
                                                      Krack, TCA 114, 145 (2005)

       Gaussian exponent of the core charge distribution:              12.500000
       Electronic configuration (s p d ...):                                   1

       Parameters of the local part of the GTH pseudopotential:

                          rloc        C1          C2          C3          C4
                        0.200000   -4.178900    0.724463


 MOLECULE KIND INFORMATION


 All atoms are their own molecule, skipping detailed information


 TOTAL NUMBERS AND MAXIMUM NUMBERS

  Total number of            - Atomic kinds:                                   3
                             - Atoms:                                         38
                             - Shell sets:                                    38
                             - Shells:                                       174
                             - Primitive Cartesian functions:                190
                             - Cartesian basis functions:                    460
                             - Spherical basis functions:                    430

  Maximum angular momentum of- Orbital basis functions:                        2
                             - Local part of the GTH pseudopotential:          2
                             - Non-local part of the GTH pseudopotential:      0


 MODULE QUICKSTEP:  ATOMIC COORDINATES IN angstrom

  Atom  Kind  Element       X           Y           Z          Z(eff)       Mass

       1     1 C    6   13.998670   16.001320   15.000030      4.00      12.0107
       2     1 C    6   15.370840   16.378800   15.000090      4.00      12.0107
       3     1 C    6   16.378800   15.370840   15.000090      4.00      12.0107
       4     1 C    6   16.001320   13.998670   15.000060      4.00      12.0107
       5     1 C    6   14.629160   13.621190   15.000030      4.00      12.0107
       6     1 C    6   13.621190   14.629160   14.999990      4.00      12.0107
       7     1 C    6   17.762060   15.683090   15.000110      4.00      12.0107
       8     1 C    6   18.733660   14.688920   15.000110      4.00      12.0107
       9     1 C    6   18.371770   13.344050   15.000100      4.00      12.0107
      10     1 C    6   17.009800   12.990190   15.000080      4.00      12.0107
      11     1 C    6   16.655940   11.628230   15.000070      4.00      12.0107
      12     1 C    6   15.311070   11.266330   15.000050      4.00      12.0107
      13     1 C    6   14.316900   12.237940   15.000020      4.00      12.0107
      14     1 C    6   12.990190   17.009800   15.000010      4.00      12.0107
      15     1 C    6   15.683090   17.762060   15.000140      4.00      12.0107
      16     1 C    6   14.688920   18.733660   15.000130      4.00      12.0107
      17     1 C    6   13.344050   18.371770   15.000060      4.00      12.0107
      18     1 C    6   11.628230   16.655950   14.999930      4.00      12.0107
      19     1 C    6   11.266330   15.311070   14.999890      4.00      12.0107
      20     1 C    6   12.237940   14.316900   14.999920      4.00      12.0107
      21     1 C    6   12.273970   19.403680   15.000040      4.00      12.0107
      22     1 C    6   10.596310   17.726030   14.999890      4.00      12.0107
      23     1 C    6   19.403680   12.273970   15.000100      4.00      12.0107
      24     1 C    6   17.726020   10.596310   15.000090      4.00      12.0107
      25     2 O    8   10.972420   19.027570   14.999950      6.00      15.9994
      26     2 O    8    9.406950   17.448520   14.999810      6.00      15.9994
      27     2 O    8   12.551470   20.593050   15.000090      6.00      15.9994
      28     2 O    8   19.027570   10.972420   15.000090      6.00      15.9994
      29     2 O    8   20.593050   12.551480   15.000090      6.00      15.9994
      30     2 O    8   17.448520    9.406950   15.000090      6.00      15.9994
      31     3 H    1   18.140920   16.689430   15.000130      1.00       1.0079
      32     3 H    1   19.777740   14.977860   15.000120      1.00       1.0079
      33     3 H    1   15.022130   10.222250   15.000040      1.00       1.0079
      34     3 H    1   13.310560   11.859080   15.000000      1.00       1.0079
      35     3 H    1   16.689430   18.140920   15.000190      1.00       1.0079
      36     3 H    1   14.977860   19.777750   15.000170      1.00       1.0079
      37     3 H    1   10.222250   15.022130   14.999820      1.00       1.0079
      38     3 H    1   11.859080   13.310560   14.999880      1.00       1.0079




 SCF PARAMETERS         Density guess:                                    ATOMIC
                        --------------------------------------------------------
                        max_scf:                                              30
                        max_scf_history:                                       0
                        max_diis:                                              4
                        --------------------------------------------------------
                        eps_scf:                                        1.00E-06
                        eps_scf_history:                                0.00E+00
                        eps_diis:                                       1.00E-01
                        eps_eigval:                                     1.00E-05
                        --------------------------------------------------------
                        level_shift [a.u.]:                                 0.00
                        --------------------------------------------------------
                        Outer loop SCF in use 
                        No variables optimised in outer loop
                        eps_scf                                         1.00E-06
                        max_scf                                               10
                        No outer loop optimization
                        step_size                                       5.00E-01

 PW_GRID: Information for grid number                                          1
 PW_GRID: Grid distributed over                                    24 processors
 PW_GRID: Real space group dimensions                                    24    1
 PW_GRID: the grid is blocked:                                                NO
 PW_GRID: Cutoff [a.u.]                                                    280.0
 PW_GRID: spherical cutoff:                                                   NO
 PW_GRID:   Bounds   1           -216     215                Points:         432
 PW_GRID:   Bounds   2           -216     215                Points:         432
 PW_GRID:   Bounds   3           -216     215                Points:         432
 PW_GRID: Volume element (a.u.^3)  0.2260E-02     Volume (a.u.^3)    182205.0337
 PW_GRID: Grid span                                                    FULLSPACE
 PW_GRID:   Distribution                         Average         Max         Min
 PW_GRID:   G-Vectors                          3359232.0     3359232     3359232
 PW_GRID:   G-Rays                                7776.0        7776        7776
 PW_GRID:   Real Space Points                  3359232.0     3359232     3359232

 PW_GRID: Information for grid number                                          2
 PW_GRID: Grid distributed over                                    24 processors
 PW_GRID: Real space group dimensions                                    24    1
 PW_GRID: the grid is blocked:                                                NO
 PW_GRID: Cutoff [a.u.]                                                    140.0
 PW_GRID: spherical cutoff:                                                   NO
 PW_GRID:   Bounds   1           -160     159                Points:         320
 PW_GRID:   Bounds   2           -160     159                Points:         320
 PW_GRID:   Bounds   3           -160     159                Points:         320
 PW_GRID: Volume element (a.u.^3)  0.5560E-02     Volume (a.u.^3)    182205.0337
 PW_GRID: Grid span                                                    FULLSPACE
 PW_GRID:   Distribution                         Average         Max         Min
 PW_GRID:   G-Vectors                          1365333.3     1365440     1365120
 PW_GRID:   G-Rays                                4266.7        4267        4266
 PW_GRID:   Real Space Points                  1365333.3     1433600     1331200

 PW_GRID: Information for grid number                                          3
 PW_GRID: Grid distributed over                                    24 processors
 PW_GRID: Real space group dimensions                                    24    1
 PW_GRID: the grid is blocked:                                                NO
 PW_GRID: Cutoff [a.u.]                                                     46.7
 PW_GRID: spherical cutoff:                                                   NO
 PW_GRID:   Bounds   1            -90      89                Points:         180
 PW_GRID:   Bounds   2            -90      89                Points:         180
 PW_GRID:   Bounds   3            -90      89                Points:         180
 PW_GRID: Volume element (a.u.^3)  0.3124E-01     Volume (a.u.^3)    182205.0337
 PW_GRID: Grid span                                                    FULLSPACE
 PW_GRID:   Distribution                         Average         Max         Min
 PW_GRID:   G-Vectors                           243000.0      243360      242820
 PW_GRID:   G-Rays                                1350.0        1352        1349
 PW_GRID:   Real Space Points                   243000.0      259200      226800

 PW_GRID: Information for grid number                                          4
 PW_GRID: Grid distributed over                                    24 processors
 PW_GRID: Real space group dimensions                                    24    1
 PW_GRID: the grid is blocked:                                                NO
 PW_GRID: Cutoff [a.u.]                                                     15.6
 PW_GRID: spherical cutoff:                                                   NO
 PW_GRID:   Bounds   1            -54      53                Points:         108
 PW_GRID:   Bounds   2            -54      53                Points:         108
 PW_GRID:   Bounds   3            -54      53                Points:         108
 PW_GRID: Volume element (a.u.^3)  0.1446         Volume (a.u.^3)    182205.0337
 PW_GRID: Grid span                                                    FULLSPACE
 PW_GRID:   Distribution                         Average         Max         Min
 PW_GRID:   G-Vectors                            52488.0       52704       52380
 PW_GRID:   G-Rays                                 486.0         488         485
 PW_GRID:   Real Space Points                    52488.0       58320       46656

 PW_GRID: Information for grid number                                          5
 PW_GRID: Grid distributed over                                    24 processors
 PW_GRID: Real space group dimensions                                    24    1
 PW_GRID: the grid is blocked:                                                NO
 PW_GRID: Cutoff [a.u.]                                                      5.2
 PW_GRID: spherical cutoff:                                                   NO
 PW_GRID:   Bounds   1            -30      29                Points:          60
 PW_GRID:   Bounds   2            -30      29                Points:          60
 PW_GRID:   Bounds   3            -30      29                Points:          60
 PW_GRID: Volume element (a.u.^3)  0.8435         Volume (a.u.^3)    182205.0337
 PW_GRID: Grid span                                                    FULLSPACE
 PW_GRID:   Distribution                         Average         Max         Min
 PW_GRID:   G-Vectors                             9000.0        9120        8940
 PW_GRID:   G-Rays                                 150.0         152         149
 PW_GRID:   Real Space Points                     9000.0       10800        7200

 PW_GRID: Information for grid number                                          6
 PW_GRID: Grid distributed over                                    24 processors
 PW_GRID: Real space group dimensions                                    24    1
 PW_GRID: the grid is blocked:                                                NO
 PW_GRID: Cutoff [a.u.]                                                      1.7
 PW_GRID: spherical cutoff:                                                   NO
 PW_GRID:   Bounds   1            -18      17                Points:          36
 PW_GRID:   Bounds   2            -18      17                Points:          36
 PW_GRID:   Bounds   3            -18      17                Points:          36
 PW_GRID: Volume element (a.u.^3)   3.905         Volume (a.u.^3)    182205.0337
 PW_GRID: Grid span                                                    FULLSPACE
 PW_GRID:   Distribution                         Average         Max         Min
 PW_GRID:   G-Vectors                             1944.0        2016        1908
 PW_GRID:   G-Rays                                  54.0          56          53
 PW_GRID:   Real Space Points                     1944.0        2592        1296

 RS_GRID: Information for grid number                                          2
 RS_GRID:   Bounds   1           -160     159                Points:         320
 RS_GRID:   Bounds   2           -160     159                Points:         320
 RS_GRID:   Bounds   3           -160     159                Points:         320
 RS_GRID: Real space distribution over                                  2 groups
 RS_GRID: Real space distribution along direction                              1
 RS_GRID: Border size                                                         21
 RS_GRID: Real space distribution over                                  3 groups
 RS_GRID: Real space distribution along direction                              2
 RS_GRID: Border size                                                         21
 RS_GRID: Real space distribution over                                  4 groups
 RS_GRID: Real space distribution along direction                              3
 RS_GRID: Border size                                                         21
 RS_GRID:   Distribution                         Average         Max         Min
 RS_GRID:   Planes                                 202.0         202         202
 RS_GRID:   Distribution                         Average         Max         Min
 RS_GRID:   Planes                                 148.7         149         148
 RS_GRID:   Distribution                         Average         Max         Min
 RS_GRID:   Planes                                 122.0         122         122

 RS_GRID: Information for grid number                                          3
 RS_GRID:   Bounds   1            -90      89                Points:         180
 RS_GRID:   Bounds   2            -90      89                Points:         180
 RS_GRID:   Bounds   3            -90      89                Points:         180
 RS_GRID: Real space distribution over                                  2 groups
 RS_GRID: Real space distribution along direction                              1
 RS_GRID: Border size                                                         21
 RS_GRID: Real space distribution over                                  3 groups
 RS_GRID: Real space distribution along direction                              2
 RS_GRID: Border size                                                         21
 RS_GRID: Real space distribution over                                  4 groups
 RS_GRID: Real space distribution along direction                              3
 RS_GRID: Border size                                                         21
 RS_GRID:   Distribution                         Average         Max         Min
 RS_GRID:   Planes                                 132.0         132         132
 RS_GRID:   Distribution                         Average         Max         Min
 RS_GRID:   Planes                                 102.0         102         102
 RS_GRID:   Distribution                         Average         Max         Min
 RS_GRID:   Planes                                  87.0          87          87

 RS_GRID: Information for grid number                                          4
 RS_GRID:   Bounds   1            -54      53                Points:         108
 RS_GRID:   Bounds   2            -54      53                Points:         108
 RS_GRID:   Bounds   3            -54      53                Points:         108
 RS_GRID: Real space fully replicated
 RS_GRID: Group size                                                           1

 RS_GRID: Information for grid number                                          5
 RS_GRID:   Bounds   1            -30      29                Points:          60
 RS_GRID:   Bounds   2            -30      29                Points:          60
 RS_GRID:   Bounds   3            -30      29                Points:          60
 RS_GRID: Real space fully replicated
 RS_GRID: Group size                                                           1

 RS_GRID: Information for grid number                                          6
 RS_GRID:   Bounds   1            -18      17                Points:          36
 RS_GRID:   Bounds   2            -18      17                Points:          36
 RS_GRID:   Bounds   3            -18      17                Points:          36
 RS_GRID: Real space fully replicated
 RS_GRID: Group size                                                           1

 DISTRIBUTION OF THE PARTICLES (ROWS)
              Process row      Number of particles         Number of matrix rows
                        0                       11                            -1
                        1                        9                            -1
                        2                        9                            -1
                        3                        9                            -1
                      Sum                       38                            -1

 DISTRIBUTION OF THE PARTICLES (COLUMNS)
              Process col      Number of particles      Number of matrix columns
                        0                        7                            -1
                        1                        7                            -1
                        2                        6                            -1
                        3                        6                            -1
                        4                        6                            -1
                        5                        6                            -1
                      Sum                       38                            -1

 DISTRIBUTION OF THE NEIGHBOR LISTS
              Total number of particle pairs:                                716
              Total number of matrix elements:                             91276
              Average number of particle pairs:                               30
              Maximum number of particle pairs:                               40
              Average number of matrix element:                             3804
              Maximum number of matrix elements:                            4901


 DISTRIBUTION OF THE OVERLAP MATRIX
              Number  of non-zero blocks:                                    716
              Percentage non-zero blocks:                                  96.63
              Average number of blocks per CPU:                               30
              Maximum number of blocks per CPU:                               40
              Average number of matrix elements per CPU:                    3814
              Maximum number of matrix elements per CPU:                    4911

 Number of electrons:                                                        140
 Number of occupied orbitals:                                                 70
 Number of molecular orbitals:                                                70

 Number of orbital functions:                                                430
 Number of independent orbital functions:                                    430

 Extrapolation method: initial_guess

 Atomic guess: The first density matrix is obtained in terms of atomic orbitals
               and electronic configurations assigned to each atomic kind

 Guess for atomic kind: C

 Electronic structure
    Total number of core electrons                                          2.00
    Total number of valence electrons                                       4.00
    Total number of electrons                                               6.00
    Multiplicity                                                   not specified
    S   [  2.00] 2.00
    P      2.00
 

 *******************************************************************************
                  Iteration          Convergence                     Energy [au]
 *******************************************************************************
                          1        0.457038                      -5.151105664215
                          2        0.157450                      -5.235617431356
                          3        0.130137E-02                  -5.246564342251
                          4        0.531061E-03                  -5.246565033610
                          5        0.605965E-04                  -5.246565167704
                          6        0.323545E-04                  -5.246565168968
                          7        0.365472E-07                  -5.246565169473

 Energy components [Hartree]           Total Energy ::           -5.246565169473
                                        Band Energy ::           -1.058732656762
                                     Kinetic Energy ::            3.518928154187
                                   Potential Energy ::           -8.765493323660
                                      Virial (-V/T) ::            2.490955467002
                                        Core Energy ::           -8.429377161979
                                          XC Energy ::           -1.450183339326
                                     Coulomb Energy ::            4.632995331832
                       Total Pseudopotential Energy ::          -11.978048785149
                       Local Pseudopotential Energy ::          -12.816738149676
                    Nonlocal Pseudopotential Energy ::            0.838689364526
                                        Confinement ::            0.297434689834

 Orbital energies  State     L     Occupation   Energy[a.u.]          Energy[eV]

                       1     0          2.000      -0.410911          -11.181458
 
                       1     1          2.000      -0.118455           -3.223332
 

 Guess for atomic kind: O

 Electronic structure
    Total number of core electrons                                          2.00
    Total number of valence electrons                                       6.00
    Total number of electrons                                               8.00
    Multiplicity                                                   not specified
    S   [  2.00] 2.00
    P      4.00
 

 *******************************************************************************
                  Iteration          Convergence                     Energy [au]
 *******************************************************************************
                          1         1.67054                     -14.836051221656
                          2         2.12470                     -14.897900780399
                          3        0.100150                     -15.654295189160
                          4        0.189307E-01                 -15.655828842238
                          5        0.464435E-02                 -15.655882433232
                          6        0.259395E-02                 -15.655884790195
                          7        0.516014E-04                 -15.655885857622
                          8        0.157374E-05                 -15.655885858066
                          9        0.783512E-06                 -15.655885858066

 Energy components [Hartree]           Total Energy ::          -15.655885858066
                                        Band Energy ::           -2.983129541149
                                     Kinetic Energy ::           11.754767937471
                                   Potential Energy ::          -27.410653795537
                                      Virial (-V/T) ::            2.331875366774
                                        Core Energy ::          -26.153524299614
                                          XC Energy ::           -3.157392735430
                                     Coulomb Energy ::           13.655031176977
                       Total Pseudopotential Energy ::          -37.943031004162
                       Local Pseudopotential Energy ::          -39.220423834999
                    Nonlocal Pseudopotential Energy ::            1.277392830837
                                        Confinement ::            0.347387670777

 Orbital energies  State     L     Occupation   Energy[a.u.]          Energy[eV]

                       1     0          2.000      -0.861523          -23.443221
 
                       1     1          4.000      -0.315021           -8.572160
 

 Guess for atomic kind: H

 Electronic structure
    Total number of core electrons                                          0.00
    Total number of valence electrons                                       1.00
    Total number of electrons                                               1.00
    Multiplicity                                                   not specified
    S      1.00
 

 *******************************************************************************
                  Iteration          Convergence                     Energy [au]
 *******************************************************************************
                          1        0.250972E-02                  -0.375256815885
                          2        0.570752E-04                  -0.375258666164
                          3        0.832405E-09                  -0.375258667122

 Energy components [Hartree]           Total Energy ::           -0.375258667122
                                        Band Energy ::           -0.076317618391
                                     Kinetic Energy ::            0.771356566341
                                   Potential Energy ::           -1.146615233463
                                      Virial (-V/T) ::            1.486491829455
                                        Core Energy ::           -0.456090715790
                                          XC Energy ::           -0.314218627334
                                     Coulomb Energy ::            0.395050676003
                       Total Pseudopotential Energy ::           -1.238482237174
                       Local Pseudopotential Energy ::           -1.238482237174
                    Nonlocal Pseudopotential Energy ::            0.000000000000
                                        Confinement ::            0.110349550431

 Orbital energies  State     L     Occupation   Energy[a.u.]          Energy[eV]

                       1     0          1.000      -0.076318           -2.076708
 
 Re-scaling the density matrix to get the right number of electrons
                  # Electrons              Trace(P)               Scaling factor
                          140               140.000                        1.000


 SCF WAVEFUNCTION OPTIMIZATION

  ----------------------------------- OT ---------------------------------------

  Allowing for rotations:  F
  Optimizing orbital energies:  F
  Minimizer      : CG                  : conjugate gradient
  Preconditioner : FULL_SINGLE_INVERSE : cholesky inversion of H + eS
  Precond_solver : DEFAULT
  Line search    : 2PNT                : 2 energies, one gradient
  stepsize       :    0.15000000
  energy_gap     :    0.20000000

  eps_taylor     :   0.10000E-15
  max_taylor     :             4

  mixed_precision    : F

  ----------------------------------- OT ---------------------------------------

  Step     Update method      Time    Convergence         Total energy    Change
  ------------------------------------------------------------------------------

  Trace(PS):                                  140.0000000000
  Electronic density on regular grids:       -139.9999992405        0.0000007595
  Core density on regular grids:              139.9999999909       -0.0000000091
  Total charge density on r-space grids:        0.0000007504
  Total charge density g-space grids:           0.0000007504

 DBCSR| Multiplication driver                                                SMM
 DBCSR| Multrec recursion limit                                              512
 DBCSR| Multiplication stack size                                           1000
 DBCSR| Multiplication size stacks                                             3
 DBCSR| Use subcommunicators                                                   T
 DBCSR| Use MPI combined types                                                 F
 DBCSR| Use MPI memory allocation                                              T
 DBCSR| Use Communication thread                                               T
 DBCSR| Communication thread load                                             87


  **** **** ******  **  PROGRAM STARTED AT               2018-03-22 17:52:39.214
 ***** ** ***  *** **   PROGRAM STARTED ON                               pod23a6
 **    ****   ******    PROGRAM STARTED BY                                      
 ***** **    ** ** **   PROGRAM PROCESS ID                                  9617
  **** **  *******  **  PROGRAM STARTED IN /global/home/garytom/EECE_proj/CP2K/P
                                           TCDA

 CP2K| version string:                                        CP2K version 2.5.1
 CP2K| source code revision number:                                    svn:13632
 CP2K| is freely available from                             http://www.cp2k.org/
 CP2K| Program compiled at                          Thu Nov  6 18:08:22 PST 2014
 CP2K| Program compiled on                                                elder2
 CP2K| Program compiled for                                    Orcinus-intel-v14
 CP2K| Input file name                               coarse_MT_PTCDA_PBE_GPW.inp
 
 GLOBAL| Force Environment number                                              1
 GLOBAL| Basis set file name                                   ./../BASIS_MOLOPT
 GLOBAL| Geminal file name                                         BASIS_GEMINAL
 GLOBAL| Potential file name                                 ./../GTH_POTENTIALS
 GLOBAL| MM Potential file name                                     MM_POTENTIAL
 GLOBAL| Coordinate file name                                        ./PTCDA.xyz
 GLOBAL| Method name                                                        CP2K
 GLOBAL| Project name                                    coarse_MT_PTCDA_PBE_GPW
 GLOBAL| Preferred FFT library                                             FFTW3
 GLOBAL| Preferred diagonalization lib.                                       SL
 GLOBAL| Run type                                                         ENERGY
 GLOBAL| All-to-all communication in single precision                          F
 GLOBAL| FFTs using library dependent lengths                                  F
 GLOBAL| Global print level                                               MEDIUM
 GLOBAL| Total number of message passing processes                            24
 GLOBAL| Number of threads for this process                                    1
 GLOBAL| This output is from process                                           0

 MEMORY| system memory details [Kb]
 MEMORY|                        rank 0           min           max       average
 MEMORY| MemTotal             24592508      24592508      24592508      24592508
 MEMORY| MemFree                415860        412884      19461360       9608210
 MEMORY| Buffers                129296         20960        284120        207985
 MEMORY| Cached               15507152        263652      15507152       8562175
 MEMORY| Slab                  4226680        210360       4226680       2165049
 MEMORY| SReclaimable           137872         14892        238760        129624
 MEMORY| MemLikelyFree        16190180      12325172      22191268      18507995


 *** Fundamental physical constants (SI units) ***

 *** Literature: B. J. Mohr and B. N. Taylor,
 ***             CODATA recommended values of the fundamental physical
 ***             constants: 2006, Web Version 5.1
 ***             http://physics.nist.gov/constants

 Speed of light in vacuum [m/s]                             2.99792458000000E+08
 Magnetic constant or permeability of vacuum [N/A**2]       1.25663706143592E-06
 Electric constant or permittivity of vacuum [F/m]          8.85418781762039E-12
 Planck constant (h) [J*s]                                  6.62606896000000E-34
 Planck constant (h-bar) [J*s]                              1.05457162825177E-34
 Elementary charge [C]                                      1.60217648700000E-19
 Electron mass [kg]                                         9.10938215000000E-31
 Electron g factor [ ]                                     -2.00231930436220E+00
 Proton mass [kg]                                           1.67262163700000E-27
 Fine-structure constant                                    7.29735253760000E-03
 Rydberg constant [1/m]                                     1.09737315685270E+07
 Avogadro constant [1/mol]                                  6.02214179000000E+23
 Boltzmann constant [J/K]                                   1.38065040000000E-23
 Atomic mass unit [kg]                                      1.66053878200000E-27
 Bohr radius [m]                                            5.29177208590000E-11

 *** Conversion factors ***

 [u] -> [a.u.]                                              1.82288848426455E+03
 [Angstrom] -> [Bohr] = [a.u.]                              1.88972613288564E+00
 [a.u.] = [Bohr] -> [Angstrom]                              5.29177208590000E-01
 [a.u.] -> [s]                                              2.41888432650478E-17
 [a.u.] -> [fs]                                             2.41888432650478E-02
 [a.u.] -> [J]                                              4.35974393937059E-18
 [a.u.] -> [N]                                              8.23872205491840E-08
 [a.u.] -> [K]                                              3.15774647902944E+05
 [a.u.] -> [kJ/mol]                                         2.62549961709828E+03
 [a.u.] -> [kcal/mol]                                       6.27509468713739E+02
 [a.u.] -> [Pa]                                             2.94210107994716E+13
 [a.u.] -> [bar]                                            2.94210107994716E+08
 [a.u.] -> [atm]                                            2.90362800883016E+08
 [a.u.] -> [eV]                                             2.72113838565563E+01
 [a.u.] -> [Hz]                                             6.57968392072181E+15
 [a.u.] -> [1/cm] (wave numbers)                            2.19474631370540E+05
 [a.u./Bohr**2] -> [1/cm]                                   5.14048714338585E+03
 

 CELL| Volume [angstrom^3]:                                            27000.000
 CELL| Vector a [angstrom]:      30.000     0.000     0.000    |a| =      30.000
 CELL| Vector b [angstrom]:       0.000    30.000     0.000    |b| =      30.000
 CELL| Vector c [angstrom]:       0.000     0.000    30.000    |c| =      30.000
 CELL| Angle (b,c), alpha [degree]:                                       90.000
 CELL| Angle (a,c), beta  [degree]:                                       90.000
 CELL| Angle (a,b), gamma [degree]:                                       90.000
 CELL| Numerically orthorhombic:                                             YES

 CELL_REF| Volume [angstrom^3]:                                        27000.000
 CELL_REF| Vector a [angstrom    30.000     0.000     0.000    |a| =      30.000
 CELL_REF| Vector b [angstrom     0.000    30.000     0.000    |b| =      30.000
 CELL_REF| Vector c [angstrom     0.000     0.000    30.000    |c| =      30.000
 CELL_REF| Angle (b,c), alpha [degree]:                                   90.000
 CELL_REF| Angle (a,c), beta  [degree]:                                   90.000
 CELL_REF| Angle (a,b), gamma [degree]:                                   90.000
 CELL_REF| Numerically orthorhombic:                                         YES

 CELL_TOP| Volume [angstrom^3]:                                        27000.000
 CELL_TOP| Vector a [angstrom    30.000     0.000     0.000    |a| =      30.000
 CELL_TOP| Vector b [angstrom     0.000    30.000     0.000    |b| =      30.000
 CELL_TOP| Vector c [angstrom     0.000     0.000    30.000    |c| =      30.000
 CELL_TOP| Angle (b,c), alpha [degree]:                                   90.000
 CELL_TOP| Angle (a,c), beta  [degree]:                                   90.000
 CELL_TOP| Angle (a,b), gamma [degree]:                                   90.000
 CELL_TOP| Numerically orthorhombic:                                         YES
 
 GENERATE|  Preliminary Number of Bonds generated:                             0
 GENERATE|  Achieved consistency in connectivity generation.

 *******************************************************************************
 *******************************************************************************
 **                                                                           **
 **     #####                         ##              ##                      **
 **    ##   ##            ##          ##              ##                      **
 **   ##     ##                       ##            ######                    **
 **   ##     ##  ##   ##  ##   #####  ##  ##   ####   ##    #####    #####    **
 **   ##     ##  ##   ##  ##  ##      ## ##   ##      ##   ##   ##  ##   ##   **
 **   ##  ## ##  ##   ##  ##  ##      ####     ###    ##   ######   ######    **
 **    ##  ###   ##   ##  ##  ##      ## ##      ##   ##   ##       ##        **
 **     #######   #####   ##   #####  ##  ##  ####    ##    #####   ##        **
 **           ##                                                    ##        **
 **                                                                           **
 **                                                ... make the atoms dance   **
 **                                                                           **
 **            Copyright (C) by CP2K Developers Group (2000 - 2014)           **
 **                                                                           **
 *******************************************************************************

 DFT| Spin restricted Kohn-Sham (RKS) calculation                            RKS
 DFT| Multiplicity                                                             1
 DFT| Number of spin states                                                    1
 DFT| Charge                                                                   0
 DFT| Self-interaction correction (SIC)                                       NO
 DFT| Cutoffs: density                                              1.000000E-10
 DFT|          gradient                                             1.000000E-10
 DFT|          tau                                                  1.000000E-10
 DFT|          cutoff_smoothing_range                               0.000000E+00
 DFT| XC density smoothing                                                  NONE
 DFT| XC derivatives                                                          PW
 FUNCTIONAL| ROUTINE=NEW
 FUNCTIONAL| PBE:
 FUNCTIONAL| J.P.Perdew, K.Burke, M.Ernzerhof, Phys. Rev. Letter, vol. 77, n 18,
 FUNCTIONAL|  pp. 3865-3868, (1996){spin unpolarized}

 QS| Method:                                                                 GPW
 QS| Density plane wave grid type                        NON-SPHERICAL FULLSPACE
 QS| Number of grid levels:                                                    5
 QS| Density cutoff [a.u.]:                                                140.0
 QS| Multi grid cutoff [a.u.]: 1) grid level                               140.0
 QS|                           2) grid level                                46.7
 QS|                           3) grid level                                15.6
 QS|                           4) grid level                                 5.2
 QS|                           5) grid level                                 1.7
 QS| Grid level progression factor:                                          3.0
 QS| Relative density cutoff [a.u.]:                                        20.0
 QS| Consistent realspace mapping and integration 
 QS| Interaction thresholds: eps_pgf_orb:                                1.0E-05
 QS|                         eps_filter_matrix:                          0.0E+00
 QS|                         eps_core_charge:                            1.0E-12
 QS|                         eps_rho_gspace:                             1.0E-10
 QS|                         eps_rho_rspace:                             1.0E-10
 QS|                         eps_gvg_rspace:                             1.0E-05
 QS|                         eps_ppl:                                    1.0E-02
 QS|                         eps_ppnl:                                   1.0E-07


 ATOMIC KIND INFORMATION

  1. Atomic kind: C                                     Number of atoms:      24

     Orbital Basis Set                                        DZVP-MOLOPT-SR-GTH

       Number of orbital shell sets:                                           1
       Number of orbital shells:                                               5
       Number of primitive Cartesian functions:                                5
       Number of Cartesian basis functions:                                   14
       Number of spherical basis functions:                                   13
       Norm type:                                                              2

       Normalised Cartesian orbitals:

                        Set   Shell   Orbital            Exponent    Coefficient

                          1       1    2s                5.605331       0.322515
                                                         2.113016       0.213043
                                                         0.769911      -0.209686
                                                         0.348157      -0.219794
                                                         0.128212      -0.022789

                          1       2    3s                5.605331       0.552234
                                                         2.113016       0.082072
                                                         0.769911       0.007843
                                                         0.348157       0.136893
                                                         0.128212       0.074283

                          1       3    3px               5.605331      -0.703879
                                                         2.113016      -0.642521
                                                         0.769911      -0.374851
                                                         0.348157      -0.139743
                                                         0.128212      -0.027849
                          1       3    3py               5.605331      -0.703879
                                                         2.113016      -0.642521
                                                         0.769911      -0.374851
                                                         0.348157      -0.139743
                                                         0.128212      -0.027849
                          1       3    3pz               5.605331      -0.703879
                                                         2.113016      -0.642521
                                                         0.769911      -0.374851
                                                         0.348157      -0.139743
                                                         0.128212      -0.027849

                          1       4    4px               5.605331      -0.480376
                                                         2.113016      -0.552894
                                                         0.769911      -0.316145
                                                         0.348157       0.210505
                                                         0.128212       0.076095
                          1       4    4py               5.605331      -0.480376
                                                         2.113016      -0.552894
                                                         0.769911      -0.316145
                                                         0.348157       0.210505
                                                         0.128212       0.076095
                          1       4    4pz               5.605331      -0.480376
                                                         2.113016      -0.552894
                                                         0.769911      -0.316145
                                                         0.348157       0.210505
                                                         0.128212       0.076095

                          1       5    4dx2              5.605331       0.640026
                                                         2.113016       0.274300
                                                         0.769911       0.446711
                                                         0.348157       0.028674
                                                         0.128212       0.029790
                          1       5    4dxy              5.605331       1.108557
                                                         2.113016       0.475102
                                                         0.769911       0.773726
                                                         0.348157       0.049666
                                                         0.128212       0.051599
                          1       5    4dxz              5.605331       1.108557
                                                         2.113016       0.475102
                                                         0.769911       0.773726
                                                         0.348157       0.049666
                                                         0.128212       0.051599
                          1       5    4dy2              5.605331       0.640026
                                                         2.113016       0.274300
                                                         0.769911       0.446711
                                                         0.348157       0.028674
                                                         0.128212       0.029790
                          1       5    4dyz              5.605331       1.108557
                                                         2.113016       0.475102
                                                         0.769911       0.773726
                                                         0.348157       0.049666
                                                         0.128212       0.051599
                          1       5    4dz2              5.605331       0.640026
                                                         2.113016       0.274300
                                                         0.769911       0.446711
                                                         0.348157       0.028674
                                                         0.128212       0.029790

     Potential information for                                        GTH-PBE-q4

       Description:                       Goedecker-Teter-Hutter pseudopotential
                                           Goedecker et al., PRB 54, 1703 (1996)
                                          Hartwigsen et al., PRB 58, 3641 (1998)
                                                      Krack, TCA 114, 145 (2005)

       Gaussian exponent of the core charge distribution:               4.364419
       Electronic configuration (s p d ...):                               2   2

[...]
 PW_GRID:   Bounds   3            -90      89                Points:         180
 PW_GRID: Volume element (a.u.^3)  0.3124E-01     Volume (a.u.^3)    182205.0337
 PW_GRID: Grid span                                                    FULLSPACE
 PW_GRID:   Distribution                         Average         Max         Min
 PW_GRID:   G-Vectors                           243000.0      243360      242820
 PW_GRID:   G-Rays                                1350.0        1352        1349
 PW_GRID:   Real Space Points                   243000.0      259200      226800

 PW_GRID: Information for grid number                                          4
 PW_GRID: Grid distributed over                                    24 processors
 PW_GRID: Real space group dimensions                                    24    1
 PW_GRID: the grid is blocked:                                                NO
 PW_GRID: Cutoff [a.u.]                                                     15.6
 PW_GRID: spherical cutoff:                                                   NO
 PW_GRID:   Bounds   1            -54      53                Points:         108
 PW_GRID:   Bounds   2            -54      53                Points:         108
 PW_GRID:   Bounds   3            -54      53                Points:         108
 PW_GRID: Volume element (a.u.^3)  0.1446         Volume (a.u.^3)    182205.0337
 PW_GRID: Grid span                                                    FULLSPACE
 PW_GRID:   Distribution                         Average         Max         Min
 PW_GRID:   G-Vectors                            52488.0       52704       52380
 PW_GRID:   G-Rays                                 486.0         488         485
 PW_GRID:   Real Space Points                    52488.0       58320       46656

 PW_GRID: Information for grid number                                          5
 PW_GRID: Grid distributed over                                    24 processors
 PW_GRID: Real space group dimensions                                    24    1
 PW_GRID: the grid is blocked:                                                NO
 PW_GRID: Cutoff [a.u.]                                                      5.2
 PW_GRID: spherical cutoff:                                                   NO
 PW_GRID:   Bounds   1            -30      29                Points:          60
 PW_GRID:   Bounds   2            -30      29                Points:          60
 PW_GRID:   Bounds   3            -30      29                Points:          60
 PW_GRID: Volume element (a.u.^3)  0.8435         Volume (a.u.^3)    182205.0337
 PW_GRID: Grid span                                                    FULLSPACE
 PW_GRID:   Distribution                         Average         Max         Min
 PW_GRID:   G-Vectors                             9000.0        9120        8940
 PW_GRID:   G-Rays                                 150.0         152         149
 PW_GRID:   Real Space Points                     9000.0       10800        7200

 PW_GRID: Information for grid number                                          6
 PW_GRID: Grid distributed over                                    24 processors
 PW_GRID: Real space group dimensions                                    24    1
 PW_GRID: the grid is blocked:                                                NO
 PW_GRID: Cutoff [a.u.]                                                      1.7
 PW_GRID: spherical cutoff:                                                   NO
 PW_GRID:   Bounds   1            -18      17                Points:          36
 PW_GRID:   Bounds   2            -18      17                Points:          36
 PW_GRID:   Bounds   3            -18      17                Points:          36
 PW_GRID: Volume element (a.u.^3)   3.905         Volume (a.u.^3)    182205.0337
 PW_GRID: Grid span                                                    FULLSPACE
 PW_GRID:   Distribution                         Average         Max         Min
 PW_GRID:   G-Vectors                             1944.0        2016        1908
 PW_GRID:   G-Rays                                  54.0          56          53
 PW_GRID:   Real Space Points                     1944.0        2592        1296

 RS_GRID: Information for grid number                                          2
 RS_GRID:   Bounds   1           -160     159                Points:         320
 RS_GRID:   Bounds   2           -160     159                Points:         320
 RS_GRID:   Bounds   3           -160     159                Points:         320
 RS_GRID: Real space distribution over                                  2 groups
 RS_GRID: Real space distribution along direction                              1
 RS_GRID: Border size                                                         21
 RS_GRID: Real space distribution over                                  3 groups
 RS_GRID: Real space distribution along direction                              2
 RS_GRID: Border size                                                         21
 RS_GRID: Real space distribution over                                  4 groups
 RS_GRID: Real space distribution along direction                              3
 RS_GRID: Border size                                                         21
 RS_GRID:   Distribution                         Average         Max         Min
 RS_GRID:   Planes                                 202.0         202         202
 RS_GRID:   Distribution                         Average         Max         Min
 RS_GRID:   Planes                                 148.7         149         148
 RS_GRID:   Distribution                         Average         Max         Min
 RS_GRID:   Planes                                 122.0         122         122

 RS_GRID: Information for grid number                                          3
 RS_GRID:   Bounds   1            -90      89                Points:         180
 RS_GRID:   Bounds   2            -90      89                Points:         180
 RS_GRID:   Bounds   3            -90      89                Points:         180
 RS_GRID: Real space distribution over                                  2 groups
 RS_GRID: Real space distribution along direction                              1
 RS_GRID: Border size                                                         21
 RS_GRID: Real space distribution over                                  3 groups
 RS_GRID: Real space distribution along direction                              2
 RS_GRID: Border size                                                         21
 RS_GRID: Real space distribution over                                  4 groups
 RS_GRID: Real space distribution along direction                              3
 RS_GRID: Border size                                                         21
 RS_GRID:   Distribution                         Average         Max         Min
 RS_GRID:   Planes                                 132.0         132         132
 RS_GRID:   Distribution                         Average         Max         Min
 RS_GRID:   Planes                                 102.0         102         102
 RS_GRID:   Distribution                         Average         Max         Min
 RS_GRID:   Planes                                  87.0          87          87

 RS_GRID: Information for grid number                                          4
 RS_GRID:   Bounds   1            -54      53                Points:         108
 RS_GRID:   Bounds   2            -54      53                Points:         108
 RS_GRID:   Bounds   3            -54      53                Points:         108
 RS_GRID: Real space fully replicated
 RS_GRID: Group size                                                           1

 RS_GRID: Information for grid number                                          5
 RS_GRID:   Bounds   1            -30      29                Points:          60
 RS_GRID:   Bounds   2            -30      29                Points:          60
 RS_GRID:   Bounds   3            -30      29                Points:          60
 RS_GRID: Real space fully replicated
 RS_GRID: Group size                                                           1

 RS_GRID: Information for grid number                                          6
 RS_GRID:   Bounds   1            -18      17                Points:          36
 RS_GRID:   Bounds   2            -18      17                Points:          36
 RS_GRID:   Bounds   3            -18      17                Points:          36
 RS_GRID: Real space fully replicated
 RS_GRID: Group size                                                           1

 DISTRIBUTION OF THE PARTICLES (ROWS)
              Process row      Number of particles         Number of matrix rows
                        0                       11                            -1
                        1                        9                            -1
                        2                        9                            -1
                        3                        9                            -1
                      Sum                       38                            -1

 DISTRIBUTION OF THE PARTICLES (COLUMNS)
              Process col      Number of particles      Number of matrix columns
                        0                        7                            -1
                        1                        7                            -1
                        2                        6                            -1
                        3                        6                            -1
                        4                        6                            -1
                        5                        6                            -1
                      Sum                       38                            -1

 DISTRIBUTION OF THE NEIGHBOR LISTS
              Total number of particle pairs:                                716
              Total number of matrix elements:                             91276
              Average number of particle pairs:                               30
              Maximum number of particle pairs:                               40
              Average number of matrix element:                             3804
              Maximum number of matrix elements:                            4901


 DISTRIBUTION OF THE OVERLAP MATRIX
              Number  of non-zero blocks:                                    716
              Percentage non-zero blocks:                                  96.63
              Average number of blocks per CPU:                               30
              Maximum number of blocks per CPU:                               40
              Average number of matrix elements per CPU:                    3814
              Maximum number of matrix elements per CPU:                    4911

 Number of electrons:                                                        140
 Number of occupied orbitals:                                                 70
 Number of molecular orbitals:                                                70

 Number of orbital functions:                                                430
 Number of independent orbital functions:                                    430

 Extrapolation method: initial_guess

 Atomic guess: The first density matrix is obtained in terms of atomic orbitals
               and electronic configurations assigned to each atomic kind

 Guess for atomic kind: C

 Electronic structure
    Total number of core electrons                                          2.00
    Total number of valence electrons                                       4.00
    Total number of electrons                                               6.00
    Multiplicity                                                   not specified
    S   [  2.00] 2.00
    P      2.00
 

 *******************************************************************************
                  Iteration          Convergence                     Energy [au]
 *******************************************************************************
                          1        0.457038                      -5.151105664215
                          2        0.157450                      -5.235617431356
                          3        0.130137E-02                  -5.246564342251
                          4        0.531061E-03                  -5.246565033610
                          5        0.605965E-04                  -5.246565167704
                          6        0.323545E-04                  -5.246565168968
                          7        0.365472E-07                  -5.246565169473

 Energy components [Hartree]           Total Energy ::           -5.246565169473
                                        Band Energy ::           -1.058732656762
                                     Kinetic Energy ::            3.518928154187
                                   Potential Energy ::           -8.765493323660
                                      Virial (-V/T) ::            2.490955467002
                                        Core Energy ::           -8.429377161979
                                          XC Energy ::           -1.450183339326
                                     Coulomb Energy ::            4.632995331832
                       Total Pseudopotential Energy ::          -11.978048785149
                       Local Pseudopotential Energy ::          -12.816738149676
                    Nonlocal Pseudopotential Energy ::            0.838689364526
                                        Confinement ::            0.297434689834

 Orbital energies  State     L     Occupation   Energy[a.u.]          Energy[eV]

                       1     0          2.000      -0.410911          -11.181458
 
                       1     1          2.000      -0.118455           -3.223332
 

 Guess for atomic kind: O

 Electronic structure
    Total number of core electrons                                          2.00
    Total number of valence electrons                                       6.00
    Total number of electrons                                               8.00
    Multiplicity                                                   not specified
    S   [  2.00] 2.00
    P      4.00
 

 *******************************************************************************
                  Iteration          Convergence                     Energy [au]
 *******************************************************************************
                          1         1.67054                     -14.836051221656
                          2         2.12470                     -14.897900780399
                          3        0.100150                     -15.654295189160
                          4        0.189307E-01                 -15.655828842238
                          5        0.464435E-02                 -15.655882433232
                          6        0.259395E-02                 -15.655884790195
                          7        0.516014E-04                 -15.655885857622
                          8        0.157374E-05                 -15.655885858066
                          9        0.783512E-06                 -15.655885858066

 Energy components [Hartree]           Total Energy ::          -15.655885858066
                                        Band Energy ::           -2.983129541149
                                     Kinetic Energy ::           11.754767937471
                                   Potential Energy ::          -27.410653795537
                                      Virial (-V/T) ::            2.331875366774
                                        Core Energy ::          -26.153524299614
                                          XC Energy ::           -3.157392735430
                                     Coulomb Energy ::           13.655031176977
                       Total Pseudopotential Energy ::          -37.943031004162
                       Local Pseudopotential Energy ::          -39.220423834999
                    Nonlocal Pseudopotential Energy ::            1.277392830837
                                        Confinement ::            0.347387670777

 Orbital energies  State     L     Occupation   Energy[a.u.]          Energy[eV]

                       1     0          2.000      -0.861523          -23.443221
 
                       1     1          4.000      -0.315021           -8.572160
 

 Guess for atomic kind: H

 Electronic structure
    Total number of core electrons                                          0.00
    Total number of valence electrons                                       1.00
    Total number of electrons                                               1.00
    Multiplicity                                                   not specified
    S      1.00
 

 *******************************************************************************
                  Iteration          Convergence                     Energy [au]
 *******************************************************************************
                          1        0.250972E-02                  -0.375256815885
                          2        0.570752E-04                  -0.375258666164
                          3        0.832405E-09                  -0.375258667122

 Energy components [Hartree]           Total Energy ::           -0.375258667122
                                        Band Energy ::           -0.076317618391
                                     Kinetic Energy ::            0.771356566341
                                   Potential Energy ::           -1.146615233463
                                      Virial (-V/T) ::            1.486491829455
                                        Core Energy ::           -0.456090715790
                                          XC Energy ::           -0.314218627334
                                     Coulomb Energy ::            0.395050676003
                       Total Pseudopotential Energy ::           -1.238482237174
                       Local Pseudopotential Energy ::           -1.238482237174
                    Nonlocal Pseudopotential Energy ::            0.000000000000
                                        Confinement ::            0.110349550431

 Orbital energies  State     L     Occupation   Energy[a.u.]          Energy[eV]

                       1     0          1.000      -0.076318           -2.076708
 
 Re-scaling the density matrix to get the right number of electrons
                  # Electrons              Trace(P)               Scaling factor
                          140               140.000                        1.000


 SCF WAVEFUNCTION OPTIMIZATION

  ----------------------------------- OT ---------------------------------------

  Allowing for rotations:  F
  Optimizing orbital energies:  F
  Minimizer      : CG                  : conjugate gradient
  Preconditioner : FULL_SINGLE_INVERSE : cholesky inversion of H + eS
  Precond_solver : DEFAULT
  Line search    : 2PNT                : 2 energies, one gradient
  stepsize       :    0.15000000
  energy_gap     :    0.20000000

  eps_taylor     :   0.10000E-15
  max_taylor     :             4

  mixed_precision    : F

  ----------------------------------- OT ---------------------------------------

  Step     Update method      Time    Convergence         Total energy    Change
  ------------------------------------------------------------------------------

  Trace(PS):                                  140.0000000000
  Electronic density on regular grids:       -139.9999992405        0.0000007595
  Core density on regular grids:              139.9999999909       -0.0000000091
  Total charge density on r-space grids:        0.0000007504
  Total charge density g-space grids:           0.0000007504

